   92
Geometry Step: 0
    C     14.13623621      0.64653110      5.99999677      4.02317444
    C     15.09759364     17.94278430      5.99999867      3.99032761
    C     16.48914178     18.00639249      5.99999738      4.03346411
    C     16.94711806      0.74813335      5.99999636      3.98866513
    C     16.17910264      1.91300797      5.99999662      4.03358041
    C     14.78655233      1.87367017      5.99999605      3.99051900
    C     14.00423590      3.09701111      5.99999647      3.92331575
    C     18.42417146      0.80271261      5.99999611      3.98872503
    C     19.41642156     18.11234574      5.99999682      4.03372533
    C      0.22260903     18.14453055      5.99999743      3.99051634
    C      0.64848292      0.89451407      5.99999582      4.02313994
    C     20.50274685      2.07664670      5.99999594      3.99035839
    C     19.11095837      2.01928809      5.99999630      4.03331447
    C      9.52994329      4.71663442      5.99998798      4.03688507
    C      9.79210440      6.10375015      6.00001579      3.98684633
    C     11.16644906      6.39410158      6.00004238      4.03888991
    C     12.16241975      5.43975873      6.00002156      4.04553678
    C     11.86160935      4.07925016      5.99999837      3.91897687
    C     10.50607050      3.75068526      5.99998919      4.03716072
    N     12.73677431      3.01939713      5.99999342      5.22102071
    C      8.66382096      7.08749692      6.00001778      3.99760571
    C      7.39231491      6.52841340      6.00004300      4.05194718
    C      6.15838167      7.16674645      6.00001972      3.99757577
    C      6.22330944      8.59115964      6.00000124      3.98874633
    C      5.07657990      9.40761441      5.99995624      4.04421793
    C      5.12190849     10.75595878      5.99995034      4.04479438
    C      6.31944594     11.49744126      5.99999883      3.98864556
    C      7.53342409     10.73092834      6.00000812      3.99662946
    C      8.79423342     11.41968407      6.00000252      3.98863151
    C      8.85628646     12.84373453      6.00002382      3.99758240
    C      7.62211290     13.48249407      6.00005023      4.05180656
    C      6.35086698     12.92334519      6.00002334      3.99770051
    C      5.22055603     13.90748667      6.00002325      3.98689363
    C      3.84584909     13.61649287      6.00005201      4.03880443
    C      2.84862488     14.57037316      6.00003193      4.04546893
    C      3.14613515     15.93199682      6.00000763      3.91902477
    C      4.50201660     16.26060357      5.99999672      4.03704464
    C      5.47996606     15.29564730      5.99999475      4.03679724
    C     10.04851745     13.75243226      6.00002038      3.98654809
    C      9.86009109     15.15150604      5.99999341      4.03716155
    C     10.88558981     16.06217822      5.99999543      4.03658834
    C     12.22426065     15.66784799      6.00000740      3.91914274
    C     12.45510555     14.29265803      6.00002732      4.04502027
    C     11.40763515     13.39011906      6.00004287      4.03793461
    C      9.94194868     10.60411941      5.99995606      4.04417929
    C      9.89526063      9.25581520      5.99994954      4.04475748
    C      8.69836415      8.51285920      5.99999648      3.98869886
    C      7.48456775      9.27896028      6.00000706      3.99662567
    C      4.96662794      6.25693652      6.00001597      3.98635324
    C      5.15550256      4.85780786      5.99998975      4.03702327
    C      4.12986891      3.94786798      5.99999173      4.03672764
    C      2.79201434      4.34279250      6.00000232      3.91905162
    C      2.55984082      5.71700676      6.00002187      4.04514139
    C      3.60723184      6.61899473      6.00003782      4.03777994
    C      0.62848640      3.34660452      5.99999736      3.92377037
    C      1.00186865     16.91752361      6.00000183      3.92321238
    C     14.38719891     16.67094311      6.00000345      3.92375793
    N      2.26990421     16.99192960      6.00000158      5.22050608
    N     13.11932017     16.70736698      6.00000272      5.21921792
    N      1.89611423      3.30503245      5.99999831      5.21939618
    H     13.06047361      0.61015018      5.99999662      0.90945397
    H     17.02900915     17.07301936      5.99999730      0.96330634
    H     16.64722566      2.88436951      5.99999704      0.96324674
    H     14.57317480      4.03654926      6.00000027      1.00579112
    H     18.94096652     17.14459902      5.99999706      0.96313579
    H      1.72441796      0.92786024      5.99999525      0.90951157
    H     18.57692376      2.95637574      5.99999683      0.96348367
    H      8.53294988      4.31665620      5.99996636      0.96160464
    H     11.54361861      7.39597802      6.00009102      0.96218568
    H     13.19064155      5.77499671      6.00003012      0.97927793
    H     10.23450990      2.70647915      5.99998071      0.94802094
    H      7.36337136      5.46790952      6.00008195      0.94363234
    H      4.10042962      8.97665282      5.99990929      0.96134740
    H      4.17470322     11.24586512      5.99989138      0.96042583
    H      7.65119993     14.54312706      6.00009401      0.94374370
    H      3.46953304     12.61389064      6.00010229      0.96216401
    H      1.82041751     14.23527035      6.00004152      0.97923838
    H      4.77640643     17.30412162      5.99998585      0.94816065
    H      6.47697635     15.69702495      5.99997166      0.96183843
    H      8.88565513     15.60431858      5.99997014      0.96094506
    H     10.67083451     17.11922865      5.99998388      0.94756023
    H     13.46555321     13.90688077      6.00003544      0.97910396
    H     11.72689560     12.36659949      6.00008111      0.96326008
    H     10.92075843     11.03016106      5.99990892      0.96124189
    H     10.84309210      8.76751823      5.99989126      0.96066546
    H      6.12727592      4.39999795      5.99996744      0.96089954
    H      4.34350875      2.89080528      5.99998247      0.94753438
    H      1.54937543      6.10244180      6.00002984      0.97904831
    H      3.28369877      7.64117706      6.00007549      0.96335427
    H     20.60567092      4.26212559      5.99999814      1.00703374
    H      0.42623701     15.98028686      6.00000572      1.00602947
    H     15.00003899     15.75769411      6.00000758      1.00710036
   92
Geometry Step: 1
    C     14.13611628      0.64643075      5.99999678      4.02316865
    C     15.09752995     17.94281262      5.99999870      3.99028123
    C     16.48911477     18.00625141      5.99999739      4.03348661
    C     16.94712435      0.74806786      5.99999636      3.98873069
    C     16.17904581      1.91302414      5.99999661      4.03356539
    C     14.78642147      1.87352928      5.99999605      3.99050366
    C     14.00416760      3.09698614      5.99999646      3.92331031
    C     18.42429686      0.80269110      5.99999611      3.98870243
    C     19.41645844     18.11224429      5.99999683      4.03372929
    C      0.22261607     18.14472606      5.99999745      3.99055207
    C      0.64859179      0.89455272      5.99999584      4.02315350
    C     20.50278119      2.07652849      5.99999594      3.99033567
    C     19.11100414      2.01935489      5.99999630      4.03329401
    C      9.52996177      4.71661907      5.99998786      4.03688752
    C      9.79226366      6.10387293      6.00001587      3.98686590
    C     11.16660139      6.39417418      6.00004262      4.03888269
    C     12.16245597      5.43981002      6.00002170      4.04554398
    C     11.86179537      4.07931441      5.99999838      3.91897924
    C     10.50627154      3.75074783      5.99998910      4.03715663
    N     12.73668320      3.01923244      5.99999342      5.22098149
    C      8.66379045      7.08761468      6.00001787      3.99761463
    C      7.39235494      6.52841908      6.00004330      4.05194694
    C      6.15850699      7.16688305      6.00001982      3.99757221
    C      6.22345525      8.59121865      6.00000119      3.98873252
    C      5.07663377      9.40753084      5.99995593      4.04422397
    C      5.12197154     10.75589770      5.99995001      4.04479610
    C      6.31944354     11.49750247      5.99999876      3.98864758
    C      7.53331336     10.73095407      6.00000809      3.99661771
    C      8.79407312     11.41963788      6.00000246      3.98863965
    C      8.85624761     12.84372429      6.00002393      3.99758348
    C      7.62210464     13.48252483      6.00005056      4.05180579
    C      6.35084049     12.92336034      6.00002344      3.99769479
    C      5.22039433     13.90729888      6.00002333      3.98689375
    C      3.84568525     13.61651219      6.00005227      4.03880001
    C      2.84858853     14.57038895      6.00003207      4.04546581
    C      3.14607898     15.93192469      6.00000762      3.91902838
    C      4.50205026     16.26048017      5.99999660      4.03705757
    C      5.48000117     15.29547673      5.99999462      4.03679239
    C     10.04844468     13.75248111      6.00002045      3.98653550
    C      9.86004123     15.15149150      5.99999328      4.03715576
    C     10.88546639     16.06216017      5.99999533      4.03658506
    C     12.22411071     15.66776628      6.00000740      3.91914314
    C     12.45506716     14.29264680      6.00002744      4.04501886
    C     11.40756775     13.39021918      6.00004309      4.03792995
    C      9.94177194     10.60401224      5.99995576      4.04418630
    C      9.89521966      9.25568413      5.99994921      4.04475955
    C      8.69821401      8.51295332      5.99999641      3.98868481
    C      7.48454057      9.27908982      6.00000704      3.99660842
    C      4.96673294      6.25709392      6.00001603      3.98636185
    C      5.15553699      4.85787078      5.99998964      4.03702784
    C      4.12992209      3.94781726      5.99999165      4.03672059
    C      2.79203958      4.34281289      6.00000232      3.91905849
    C      2.55993666      5.71708883      6.00002198      4.04513638
    C      3.60733092      6.61904834      6.00003801      4.03777716
    C      0.62846911      3.34637495      5.99999736      3.92376036
    C      1.00179247     16.91763759      6.00000179      3.92320110
    C     14.38725041     16.67104588      6.00000341      3.92375447
    N      2.26977730     16.99180722      6.00000153      5.22053451
    N     13.11924887     16.70726975      6.00000269      5.21927398
    N      1.89609498      3.30505008      5.99999830      5.21938753
    H     13.06049717      0.61011668      5.99999663      0.90944952
    H     17.02899338     17.07279248      5.99999732      0.96330648
    H     16.64742645      2.88447244      5.99999703      0.96326271
    H     14.57339942      4.03678782      6.00000024      1.00584934
    H     18.94104345     17.14437643      5.99999707      0.96308263
    H      1.72437353      0.92797260      5.99999527      0.90945226
    H     18.57675540      2.95640978      5.99999683      0.96345389
    H      8.53277320      4.31650582      5.99996604      0.96163370
    H     11.54364067      7.39601969      6.00009153      0.96216728
    H     13.19048381      5.77486746      6.00003031      0.97924236
    H     10.23453174      2.70651167      5.99998056      0.94803605
    H      7.36330574      5.46791802      6.00008261      0.94361803
    H      4.10035850      8.97666124      5.99990874      0.96135014
    H      4.17469749     11.24572452      5.99989075      0.96045131
    H      7.65115691     14.54312516      6.00009471      0.94374187
    H      3.46948753     12.61399300      6.00010283      0.96216312
    H      1.82055562     14.23529823      6.00004173      0.97921135
    H      4.77623032     17.30412943      5.99998574      0.94817555
    H      6.47702960     15.69709456      5.99997133      0.96184494
    H      8.88583893     15.60446860      5.99996982      0.96092769
    H     10.67076813     17.11931138      5.99998379      0.94756534
    H     13.46555517     13.90701075      6.00003560      0.97909426
    H     11.72697763     12.36681702      6.00008155      0.96326437
    H     10.92053601     11.03024039      5.99990836      0.96126919
    H     10.84317475      8.76750672      5.99989065      0.96065846
    H      6.12740764      4.40012214      5.99996716      0.96091036
    H      4.34360555      2.89065529      5.99998234      0.94754359
    H      1.54936959      6.10231676      6.00002998      0.97904499
    H      3.28389035      7.64118190      6.00007591      0.96334174
    H     20.60580086      4.26210399      5.99999811      1.00711284
    H      0.42640947     15.98032300      6.00000568      1.00604251
    H     14.99995165     15.75761921      6.00000755      1.00710633
